# vtk DataFile Version 3.0
Output from R2
ASCII
DATASET UNSTRUCTURED_GRID
POINTS       4476 double
     0.00000   186.00000   0.
    10.00000   185.00000   0.
    20.00000   184.80000   0.
    30.00000   184.60000   0.
    40.00000   184.40000   0.
    50.00000   184.20000   0.
    60.00000   184.00000   0.
    70.00000   183.50000   0.
    80.00000   183.00000   0.
    90.00000   180.20000   0.
   100.00000   177.40000   0.
   110.00000   177.24000   0.
   120.00000   177.34000   0.
   130.00000   177.44000   0.
   140.00000   177.59000   0.
   150.00000   177.74000   0.
   160.00000   177.89000   0.
   170.00000   177.81000   0.
   180.00000   177.73000   0.
   190.00000   177.66000   0.
   200.00000   177.58000   0.
   210.00000   177.50000   0.
   220.00000   177.42000   0.
   230.00000   176.82000   0.
   240.00000   176.68000   0.
   250.00000   176.53000   0.
   260.00000   176.38000   0.
   270.00000   176.23000   0.
   280.00000   176.59000   0.
   290.00000   176.53000   0.
   300.00000   176.47000   0.
   310.00000   176.42000   0.
   320.00000   176.36000   0.
   330.00000   176.30000   0.
   340.00000   176.25000   0.
   350.00000   176.19000   0.
   360.00000   176.13000   0.
   370.00000   176.08000   0.
   380.00000   173.93000   0.
   390.00000   171.78000   0.
   400.00000   169.64000   0.
   410.00000   167.49000   0.
   420.00000   165.35000   0.
   430.00000   167.79000   0.
   440.00000   170.24000   0.
   450.00000   172.68000   0.
   460.00000   175.12000   0.
   470.00000   174.98000   0.
   480.00000   174.84000   0.
   490.00000   174.70000   0.
   500.00000   174.55000   0.
   510.00000   174.41000   0.
   520.00000   174.27000   0.
   530.00000   174.13000   0.
   540.00000   173.99000   0.
   550.00000   173.85000   0.
   560.00000   173.74000   0.
   570.00000   173.63000   0.
   580.00000   173.51000   0.
   590.00000   173.40000   0.
   600.00000   173.28000   0.
   610.00000   173.17000   0.
   620.00000   173.06000   0.
   630.00000   172.94000   0.
   640.00000   172.83000   0.
   650.00000   172.72000   0.
   660.00000   173.52000   0.
   670.00000   174.33000   0.
   680.00000   175.14000   0.
   690.00000   175.95000   0.
   700.00000   176.76000   0.
   710.00000   177.57000   0.
   720.00000   178.38000   0.
   730.00000   179.19000   0.
   740.00000   180.00000   0.
   750.00000   179.00000   0.
   760.00000   178.00000   0.
   770.00000   178.33000   0.
   780.00000   178.67000   0.
   790.00000   179.00000   0.
   800.00000   179.50000   0.
   810.00000   180.00000   0.
   820.00000   179.50000   0.
   830.00000   179.00000   0.
   840.00000   179.00000   0.
   850.00000   181.00000   0.
   860.00000   181.00000   0.
   870.00000   181.00000   0.
   880.00000   181.00000   0.
   890.00000   181.00000   0.
   900.00000   181.00000   0.
   910.00000   180.67000   0.
   920.00000   180.33000   0.
   930.00000   180.00000   0.
   940.00000   180.00000   0.
   950.00000   180.00000   0.
   960.00000   180.00000   0.
   970.00000   180.00000   0.
   980.00000   179.00000   0.
   990.00000   178.00000   0.
  1000.00000   179.00000   0.
    16.67000   -15.13000   0.
    50.00000   -15.80000   0.
    83.33000   -17.93000   0.
   116.67000   -22.69000   0.
   150.00000   -22.26000   0.
   183.33000   -22.29000   0.
   216.67000   -22.55000   0.
   250.00000   -23.47000   0.
   283.33000   -23.43000   0.
   316.67000   -23.62000   0.
   350.00000   -23.81000   0.
   383.33000   -26.78000   0.
   416.67000   -33.94000   0.
   450.00000   -27.32000   0.
   483.33000   -25.21000   0.
   516.67000   -25.68000   0.
   550.00000   -26.15000   0.
   583.33000   -26.53000   0.
   616.67000   -26.91000   0.
   650.00000   -27.28000   0.
   683.33000   -24.59000   0.
   716.67000   -21.89000   0.
   750.00000   -21.00000   0.
   783.33000   -21.22000   0.
   816.67000   -20.33000   0.
   850.00000   -19.00000   0.
   883.33000   -19.00000   0.
   916.67000   -19.56000   0.
   950.00000   -20.00000   0.
   983.33000   -21.33000   0.
     3.33333   185.66667   0.
     6.66667   185.33333   0.
    13.33333   184.93333   0.
    16.66667   184.86667   0.
    23.33333   184.73333   0.
    26.66667   184.66667   0.
    33.33333   184.53333   0.
    36.66667   184.46667   0.
    43.33333   184.33333   0.
    46.66667   184.26667   0.
    53.33333   184.13333   0.
    56.66667   184.06667   0.
    63.33333   183.83333   0.
    66.66667   183.66667   0.
    73.33333   183.33333   0.
    76.66667   183.16667   0.
    83.33333   182.06667   0.
    86.66667   181.13333   0.
    93.33333   179.26667   0.
    96.66667   178.33333   0.
   103.33333   177.34667   0.
   106.66667   177.29333   0.
   113.33333   177.27333   0.
   116.66667   177.30667   0.
   123.33333   177.37333   0.
   126.66667   177.40667   0.
   133.33333   177.49000   0.
   136.66667   177.54000   0.
   143.33333   177.64000   0.
   146.66667   177.69000   0.
   153.33333   177.79000   0.
   156.66667   177.84000   0.
   163.33333   177.86333   0.
   166.66667   177.83667   0.
   173.33333   177.78333   0.
   176.66667   177.75667   0.
   183.33333   177.70667   0.
   186.66667   177.68333   0.
   193.33333   177.63333   0.
   196.66667   177.60667   0.
   203.33333   177.55333   0.
   206.66667   177.52667   0.
   213.33333   177.47333   0.
   216.66667   177.44667   0.
   223.33333   177.22000   0.
   226.66667   177.02000   0.
   233.33333   176.77333   0.
   236.66667   176.72667   0.
   243.33333   176.63000   0.
   246.66667   176.58000   0.
   253.33333   176.48000   0.
   256.66667   176.43000   0.
   263.33333   176.33000   0.
   266.66667   176.28000   0.
   273.33333   176.35000   0.
   276.66667   176.47000   0.
   283.33333   176.57000   0.
   286.66667   176.55000   0.
   293.33333   176.51000   0.
   296.66667   176.49000   0.
   303.33333   176.45333   0.
   306.66667   176.43667   0.
   313.33333   176.40000   0.
   316.66667   176.38000   0.
   323.33333   176.34000   0.
   326.66667   176.32000   0.
   333.33333   176.28333   0.
   336.66667   176.26667   0.
   343.33333   176.23000   0.
   346.66667   176.21000   0.
   353.33333   176.17000   0.
   356.66667   176.15000   0.
   363.33333   176.11333   0.
   366.66667   176.09667   0.
   373.33333   175.36333   0.
   376.66667   174.64667   0.
   383.33333   173.21333   0.
   386.66667   172.49667   0.
   393.33333   171.06667   0.
   396.66667   170.35333   0.
   403.33333   168.92333   0.
   406.66667   168.20667   0.
   413.33333   166.77667   0.
   416.66667   166.06333   0.
   423.33333   166.16333   0.
   426.66667   166.97667   0.
   433.33333   168.60667   0.
   436.66667   169.42333   0.
   443.33333   171.05333   0.
   446.66667   171.86667   0.
   453.33333   173.49333   0.
   456.66667   174.30667   0.
   463.33333   175.07333   0.
   466.66667   175.02667   0.
   473.33333   174.93333   0.
   476.66667   174.88667   0.
   483.33333   174.79333   0.
   486.66667   174.74667   0.
   493.33333   174.65000   0.
   496.66667   174.60000   0.
   503.33333   174.50333   0.
   506.66667   174.45667   0.
   513.33333   174.36333   0.
   516.66667   174.31667   0.
   523.33333   174.22333   0.
   526.66667   174.17667   0.
   533.33333   174.08333   0.
   536.66667   174.03667   0.
   543.33333   173.94333   0.
   546.66667   173.89667   0.
   553.33333   173.81333   0.
   556.66667   173.77667   0.
   563.33333   173.70333   0.
   566.66667   173.66667   0.
   573.33333   173.59000   0.
   576.66667   173.55000   0.
   583.33333   173.47333   0.
   586.66667   173.43667   0.
   593.33333   173.36000   0.
   596.66667   173.32000   0.
   603.33333   173.24333   0.
   606.66667   173.20667   0.
   613.33333   173.13333   0.
   616.66667   173.09667   0.
   623.33333   173.02000   0.
   626.66667   172.98000   0.
   633.33333   172.90333   0.
   636.66667   172.86667   0.
   643.33333   172.79333   0.
   646.66667   172.75667   0.
   653.33333   172.98667   0.
   656.66667   173.25333   0.
   663.33333   173.79000   0.
   666.66667   174.06000   0.
   673.33333   174.60000   0.
   676.66667   174.87000   0.
   683.33333   175.41000   0.
   686.66667   175.68000   0.
   693.33333   176.22000   0.
   696.66667   176.49000   0.
   703.33333   177.03000   0.
   706.66667   177.30000   0.
   713.33333   177.84000   0.
   716.66667   178.11000   0.
   723.33333   178.65000   0.
   726.66667   178.92000   0.
   733.33333   179.46000   0.
   736.66667   179.73000   0.
   743.33333   179.66667   0.
   746.66667   179.33333   0.
   753.33333   178.66667   0.
   756.66667   178.33333   0.
   763.33333   178.11000   0.
   766.66667   178.22000   0.
   773.33333   178.44333   0.
   776.66667   178.55667   0.
   783.33333   178.78000   0.
   786.66667   178.89000   0.
   793.33333   179.16667   0.
   796.66667   179.33333   0.
   803.33333   179.66667   0.
   806.66667   179.83333   0.
   813.33333   179.83333   0.
   816.66667   179.66667   0.
   823.33333   179.33333   0.
   826.66667   179.16667   0.
   833.33333   179.00000   0.
   836.66667   179.00000   0.
   843.33333   179.66667   0.
   846.66667   180.33333   0.
   853.33333   181.00000   0.
   856.66667   181.00000   0.
   863.33333   181.00000   0.
   866.66667   181.00000   0.
   873.33333   181.00000   0.
   876.66667   181.00000   0.
   883.33333   181.00000   0.
   886.66667   181.00000   0.
   893.33333   181.00000   0.
   896.66667   181.00000   0.
   903.33333   180.89000   0.
   906.66667   180.78000   0.
   913.33333   180.55667   0.
   916.66667   180.44333   0.
   923.33333   180.22000   0.
   926.66667   180.11000   0.
   933.33333   180.00000   0.
   936.66667   180.00000   0.
   943.33333   180.00000   0.
   946.66667   180.00000   0.
   953.33333   180.00000   0.
   956.66667   180.00000   0.
   963.33333   180.00000   0.
   966.66667   180.00000   0.
   973.33333   179.66667   0.
   976.66667   179.33333   0.
   983.33333   178.66667   0.
   986.66667   178.33333   0.
   993.33333   178.33333   0.
[...]
POINT_DATA      4476
CELL_DATA      8527
SCALARS Resistivity(ohm.m) double 1
LOOKUP_TABLE default
           136.42336           116.56502           116.90806           133.59057           128.14110           123.41167           145.54182           144.12093           117.05794           147.48506           118.30418           118.77565           179.85436           148.66846           150.14114           174.81595           151.97311           121.38598           171.69295           119.43886           154.12159           119.66318           179.55615           116.78014           116.36447           171.21765           156.52843           169.23897           146.47460           171.24943           166.86224           177.89270           179.53002           158.95735           177.70212           171.20709           173.70975           174.96166           120.07623           175.87485           179.02558           161.57238           116.49805           176.65550           117.10345           172.55004           119.55035           125.64239           178.60717           118.08548           116.83995           123.00680           173.08545           172.93243           176.39612           119.37676           181.35097           146.37802           121.08960           117.28845           180.55012           127.54510           117.49186           125.16613           120.02373           173.43768           180.97893           171.15463           176.33556           179.83914           177.42233           180.82094           173.26904           175.07539           178.62794           176.73677           145.46149           173.11588           174.14808           177.90648           118.70304           117.17648           116.28519           144.74890           130.32751           175.04734           179.85907           118.07859           178.15396           118.26451           117.60036           116.85310           116.72839           116.24360           132.55870           117.38255           117.59489           164.49154           116.70117           131.06521           118.72991           139.00910           152.70852           110.30336            66.03488           142.09480           105.23237            49.94674            56.45441           120.42171           126.31711            93.65950           114.22639           150.43655           149.47235            51.71860            35.48542            71.97498            62.47578            82.89870            98.54654           187.98324            82.71845            76.47971            55.14870            71.70663            47.55793           149.15446            79.68657            58.37885            50.28311            52.79782           107.81393            73.34027           144.79107           153.64276           147.24830           145.88446           126.05737            94.02412            44.91983            98.19449            57.76944           154.77665            51.97185           108.66152            92.48161           151.88519            80.66517            98.22262            50.01603           100.46593           128.37837           103.54102           147.21538           164.51487           124.49241           133.85888           145.65730            51.45068            29.87500           105.94388            69.31170           113.03953            86.71078           106.16659            53.40146            78.91163            83.18739           121.61019            67.06517           125.98048            92.08197            62.36442           141.82778            70.04912           106.69603           146.69858            65.70412            77.42775            46.79238           153.03038           115.62709           108.86371            53.07116            73.99648            31.94347           119.25703           100.43782            51.27687           156.38506           114.22140            70.62388           140.27443           152.65135           143.91014           100.90325           138.01550           117.35856            29.53321           131.55377            60.91786           124.40693            89.55159            46.24363            48.40697            74.79509            50.66055           101.53410           152.77217           114.07659           137.05407           154.64890            60.93252            97.04703           107.29712            66.38237           144.64776            69.51152           153.10830           106.51507           148.64154           105.43987           113.89042           116.35716           151.91631           108.09197            74.44808           106.96550            65.20503            98.28387            84.31658           150.73136            48.53593           116.24547            76.60442            83.96655           149.49905           184.20930            73.59393           154.69608            50.06579           122.14814            31.81130            52.89250           162.53089            97.10286            76.02312            76.83919            87.51299           102.56494            57.73485            79.41599            56.97048            85.54547           130.39979           108.10734            52.19566            53.26445           123.55420           164.53019           151.71792           113.38839           113.62468            40.69980            55.70077           115.83886            90.28048            78.52060            76.35629            50.99826           144.14073           157.95997           114.69685            55.84164            38.80014           102.12271            50.07242           116.10791           132.17674           141.61576           109.49007            76.14652           119.74597           116.26373            42.19872           133.49110            63.03900            60.41111            44.47420           109.99247            30.65753            50.58131           105.01373           149.39994           100.40415            74.31983            61.89334            57.25996           126.30120           143.85379            71.37379            75.42750           118.59293           117.74541           150.05794           114.32134            50.65375           126.58695            92.46462           126.51353            95.99117           115.30560            75.82817           123.10798           150.90025            64.49831           170.89046            55.13130           125.73805            60.14119            42.99982            77.58056            90.69610           103.47209           149.28945            28.28322           131.58215            72.43816            72.74777            49.42815           149.66806           128.73994           105.09189            30.68631           108.84335            55.19054            90.58388           113.17323           146.77955           119.81206            62.37483           153.28169           141.09788            33.99546           101.30704           117.00680            74.74621            39.95812            59.98086           134.92161           121.52337           119.97213           130.19860           127.17328            53.58660            50.87046           149.22814           104.51614            61.33188            50.58071            52.02853           144.67674            85.11340            76.32389           125.43764            60.07727           142.38542            49.31966           136.75310            48.10374            74.55083           149.03819           141.43240            86.39711           160.24156           152.49255            57.16745           109.05441           113.43514           106.87305           129.34328            50.50884            50.60427            66.79314            94.74404            44.11720           124.49843           142.24394            67.37402            88.34134            77.54866            65.01961           148.56036           127.55451           101.93642            60.83997           158.81130           118.85408            73.38007           132.09959           107.77582           161.59951            49.41475           150.78185            83.06929            57.63076            83.54530           119.17843           114.72821            71.18940            44.86287            66.53591            49.67875            55.73833           111.26724            54.34447            62.20210            57.48235           106.07380           114.07952           104.59327            71.16264            78.96167            60.69779            43.70916            62.57614            93.96469            62.86072            63.44657           107.41822            59.45010            79.65759            63.53749           113.93265            62.19265           117.45083           186.64800           115.71044            98.29144            50.07297           107.19817            96.87221            68.89428            64.74652           137.57923            71.96295           121.56549            70.40248           116.89279            78.39663           106.21275            42.17241            95.33305            75.50680            56.08867            60.94320            39.87564           138.34612            67.55659            49.51165            40.18128            78.23320           153.63910           104.50320            47.71819            70.21373           125.08096           145.51493            68.83542           162.35670           109.98374            84.50297           112.49912           156.40436           145.11080            90.50476            57.29515           174.63166           137.95307            68.32373            52.12188           152.30256            65.45743           120.13593            39.54247           152.08318           122.58314           114.27730           132.05524            49.96842           124.16938            46.83927           147.47460           144.46820            67.91559            60.68878           110.24286            68.49292            88.91443           106.05823            65.94305           120.27960           102.44356            62.03699           105.96537            62.60852           115.85445            53.96974            39.11251           113.69512           139.50075           148.45588           107.29686           132.73949            56.66598            49.23049           150.53094            55.48171            57.71316            57.13751           146.18524           118.51120            89.60911            48.73886           120.90843           100.87462           170.34358            41.37718            36.17812            66.80003           170.66119            69.87749            50.03844            99.43716           114.47969           162.77703           149.77727            65.24207            60.17131            68.28423            49.75949            34.69286           181.94890            89.64644           134.19104            55.96306           129.70788            56.32008           165.26959           100.25407           115.99081            65.56790            53.94619            50.88470            63.07669           116.80091            63.36422           153.02655           146.96086           105.01909            53.31874            50.57357           150.39766            71.91138            78.76404            80.60529           118.41849            91.69930           167.66293            73.76202            57.75169            47.83747            90.41480           126.04009            80.76352           158.56792           163.17570           118.92904            27.68855            86.29460           100.40426            50.62099            63.20957            51.48262            68.81839            74.61000            60.65392            70.06265           114.13025            86.84279           156.08055            79.65817           128.20730            51.54659            57.09029            29.58618            62.88566           122.44980           166.09612           145.03529            75.80248           118.66993           187.28210            56.46672            59.08382            66.42481           121.98012           117.11250            79.17921            85.43610            96.57999            81.16742           148.40490            67.63929            58.43288           116.99099           123.23400           119.76046           152.17092            91.74186           109.05171            48.69661           112.18841            56.75323            77.75429            54.27797            56.81591            55.16842           165.31039           117.36597            71.95278            99.72023           143.24668           149.04192           127.74966           115.08602           116.36128           141.29874            80.15872           114.29122            52.19219           117.33894           146.06260            73.48076           150.66349            81.91774           113.07741            40.28674            48.18036           127.25936            84.32126           142.32520           187.95875           153.63202            99.03331            67.20252            55.89929           104.12820            76.20782           108.40661           159.38182           123.14090            72.32696           106.15744           154.35687           163.91831           150.94044            48.75464            70.80966            61.57543            97.38869           121.88771           109.23320            48.17715           115.86047            76.76704            76.63779           114.45657            65.92441            48.63115            60.16116           119.10489            92.62958           145.99240           156.00119           145.17504            54.56665           137.84958            81.00171            39.70461            59.92338           107.66295           126.70070            72.11456            90.95391            60.46312            94.54220            85.45110            79.04738           184.26947            41.19096            66.12985            69.98995           160.19124           140.97127            53.95853           159.75502           149.60800            64.17470            61.97908           116.29377            82.83064           119.43211           119.92040            28.93143            74.41484           109.41071           147.52978            62.13234            83.29549            47.23286            67.62301           152.02457            88.69134            72.61566           154.99512            65.89969           118.31701            73.70066            61.77234           100.71140            60.57849            81.23806           170.38199           113.79196           135.37152           110.97686            63.88267            73.25130           106.45595            63.67680            73.22306            56.71765           148.49355            84.84023            94.27798           155.05578           103.89358            76.17548           149.81533            55.14511            32.72553            50.37761            49.99025            93.25846           102.23681            65.09399            66.08968            58.02461           113.94005           107.62538           143.33387            88.50181            57.83339            70.39465            63.60852           162.11538           149.99394            58.65975           106.32875           130.68927            92.66196           131.97115            94.62827            88.57172           108.22961            39.61982            53.48785            63.49478           143.63152           118.05795            54.53350            57.07410           118.81657           116.19042            61.19357            74.06803           157.34322           160.00340           133.29168            97.63791            61.30123           136.82703            89.98199           113.96847            28.22513           142.08420            62.76478            60.20245           121.45829           147.89471            56.40867            65.18209            59.74933           117.63265            60.02181           165.84332           139.59086            95.40154            60.15903           133.52600           108.32877           111.60383            30.89582           110.76053            49.52235           131.05380           119.06989           162.59714            70.45166            52.94992            86.64243           110.11144            34.61622            64.92776            64.21524           136.05618            64.83224            60.90768           112.79613           105.47381           117.29063            78.67282           131.13523            69.98865            92.63870           116.50540            59.81210           115.10393            63.10354            31.68080            49.07391            44.87086            77.44612            49.35382           138.71688            71.18192            67.23528            92.15865           147.06515           125.02120            79.28860            62.22601           117.56515            91.47812           112.11950            56.92683            59.06973            74.89324            90.11742            68.89750            62.35529           142.70384            70.06523            75.81491            68.41037            49.88635            97.79643           123.65097            63.73727           100.51691            59.44373            66.13857            63.72773            39.30182            54.27566           139.84908            65.93814           127.74133            71.20699           136.66009            62.20533           134.48431            75.95377            87.87934           123.00949            53.24266           152.13058           112.65659            65.58869            69.62344           120.29064           128.88887           169.25807           118.38696           117.41100           118.15386            54.88601            78.66351            30.09906            74.36578            75.23483            59.38147            65.18694            68.54315           143.74127           119.62395            67.67047            93.54509            71.04624            54.79719            50.17797           110.42899            83.31544            70.07003           123.85738           117.67288            32.53204           127.46221            55.89775            75.84419           118.71894            75.03800            72.45082            97.08144           126.40155            76.90652            97.41475           108.47663           140.74570           114.17926            59.82853            56.93357            72.46463            58.73630            55.95872            90.90487            68.52546           135.56597            60.63391           105.40522           108.17917           161.94821            69.89508            75.58081           126.81846            49.17753            74.93617            62.80724            67.65394            89.23462           105.57147            81.71722           130.33938           155.64955            50.68850            80.55525           143.36830            65.04710            44.77974           123.10416            92.28671            72.42279           131.54298           153.00976           116.15209            54.83999            61.26924           129.40647           144.13944            41.97839           115.05179           114.82777            54.44600           117.86336           123.78266            86.51426           147.02202           123.14418           144.51903           104.89849            59.86419            53.81979           100.91374            79.03959           133.85475           160.87956            54.68967            83.26369           115.13274            51.87792            38.65589           118.54305           115.73467  